<?xml version="1.0" encoding="UTF-8"?>

<!-- generated on Di 06 Aug 2024 15:38:48 CEST by SUMO gui Version 0.32.0
<?xml version="1.0" encoding="UTF-8"?>

<configuration xmlns:xsi="http://www.w3.org/2001/XMLSchema-instance" xsi:noNamespaceSchemaLocation="http://sumo.dlr.de/xsd/sumoConfiguration.xsd">

    <input>
        <net-file value="/home/sim/OSTAR/OSTAR-Quickstart/examples/07-sumo/sumoexample.net.xml"/>
        <route-files value="/home/sim/OSTAR/OSTAR-Quickstart/examples/07-sumo/sumoexample.rou.xml"/>
    </input>

    <output>
        <tripinfo-output value="/home/sim/OSTAR/OSTAR-Quickstart/examples/07-sumo/tripinfo.xml"/>
    </output>

    <time>
        <begin value="0"/>
        <end value="80"/>
    </time>

</configuration>
-->

<tripinfos xmlns:xsi="http://www.w3.org/2001/XMLSchema-instance" xsi:noNamespaceSchemaLocation="http://sumo.dlr.de/xsd/tripinfo_file.xsd">
</tripinfos>
